% Model:              shim_coils_asbuilt.mph
% Version:            COMSOL 6.3.0.335
% Date:               Apr 11 2025, 15:11
% Dimension:          1
% Nodes:              531
% Expressions:        1
% Description:        Line graph
% x-coordinate (m)        Magnetic flux density, x-component
-1.1140000000000003       -0.49826325541070715
-1.1124244975874964       -0.4983234012736865
-1.1073621749986529       -0.49851684327335166
-1.103509920745008        -0.4986640928214263
-1.1034627889577835       -0.4986658943988695
-1.102304907293624        -0.4987101169635429
-1.0987150561261485       -0.49884722287888417
-1.098224765384482        -0.49886594837968723
-1.094140545256725        -0.49902193555379215
-1.0929255779155664       -0.4990683088618303
-1.0921029032597087       -0.4990997263380946
-1.091272964667451        -0.49913142121995036
-1.0890873557703113       -0.4992149274052236
-1.0840392120480302       -0.4994078032786292
-1.0827850556256178       -0.49945572119235515
-1.0823883668733496       -0.49947087759315767
-1.0799499461561406       -0.4995640430320667
-1.075856592925954        -0.4997208368354909
-1.075856592925954        -0.4997691731463879
-1.0669882446073833       -0.5005245899368591
-1.0666611218743065       -0.500552450013233
-1.0620771226260022       -0.5009428556813278
-1.055420034502023        -0.501510334634157
-1.0478314010108345       -0.5028286653484118
-1.0466989647794112       -0.5036301180339753
-1.046698964779411        -0.5035972632201468
-1.0454351731086406       -0.502214370091398
-1.0349154853914662       -0.5032408325294007
-1.028612597782764        -0.5048325777865686
-1.028597592987578        -0.5048363672386793
-1.0263572526567482       -0.5054021638583394
-1.0155808513453248       -0.5081238522442095
-0.998181919515208        -0.5125172280621688
-0.997693587030339        -0.5126405350266916
-0.9969245043825609       -0.5128347110464082
-0.9962462172991832       -0.5130059736389241
-0.995047298646994        -0.513308740135089
-0.9938305185705516       -0.5136160086007031
-0.9919576885171069       -0.5140889466673424
-0.9769115832530418       -0.5178884777144606
-0.9769115832530418       -0.51766175606296
-0.9719574212767316       -0.5192957595647956
-0.9655638261615163       -0.5214044692127235
-0.9590202857122013       -0.5235624826172862
-0.9522663239358847       -0.5257898914886905
-0.9522491570821607       -0.5257955529957503
-0.9521806277682393       -0.5258181529967076
-0.9490924072085571       -0.5268366089265902
-0.9486808813170889       -0.5269723249405103
-0.9431226179623842       -0.5288054518625134
-0.9408825847924313       -0.5295442195041268
-0.9325408928875897       -0.5322953226854888
-0.9325408928875897       -0.5326950077414483
-0.9318799195531564       -0.532964394170208
-0.9298045830456132       -0.5338102129934923
-0.9249973020272527       -0.5357694593322967
-0.9237752835171543       -0.5362675033285065
-0.9175495187322689       -0.5388048665086084
-0.9168599585909084       -0.5390859004997841
-0.9168599585909084       -0.5386935093868365
-0.9121896817692297       -0.5411189260922419
-0.9059478213436645       -0.5443604831614866
-0.9046501979915664       -0.5450343728897928
-0.8958409607571868       -0.5496092400705224
-0.8897558579313443       -0.5527693694121038
-0.8880175497992202       -0.553672139710856
-0.8768932501289746       -0.5594493081754822
-0.8702886958447087       -0.5628792565810025
-0.8673220340934592       -0.5644199353770958
-0.8643297492085358       -0.5659739692408235
-0.8591751410075321       -0.5686509990045902
-0.855273405833961        -0.5706773004858674
-0.8546566375951548       -0.5709976063125605
-0.8448882102555739       -0.5760706369870221
-0.84445311343647         -0.576296594712383
-0.8366383955620662       -0.5803549922866833
-0.8366383955620662       -0.5836928045236048
-0.830097685886479        -0.5873515029336321
-0.8195858930456833       -0.5935939143121322
-0.8108290863796914       -0.5997020769005886
-0.8056746924605749       -0.6030837985979012
-0.8001958921925595       -0.6072320982599652
-0.8001958921925594       -0.6066783585078208
-0.7915412111016165       -0.6134993268594072
-0.7793432154572182       -0.6223321771360313
-0.7779250376267041       -0.624185740716979
-0.777925037626704        -0.6233590696015885
-0.7767677055365274       -0.6252106254432777
-0.7690645129820946       -0.632032249469594
-0.7625711410259646       -0.6377826646756831
-0.7616649050824602       -0.6385851704188609
-0.7605620807901703       -0.6395618227200205
-0.7507587259368007       -0.6482434739607219
-0.7480803970807067       -0.6506152824295729
-0.7454047725382167       -0.6529846960790224
-0.7329493908053992       -0.6640151363711873
-0.732452938891507        -0.664454790501092
-0.7323851416717959       -0.6645148316268078
-0.7316498306740997       -0.664538984876023
-0.7285111564246589       -0.66692266992519
-0.7259563658918633       -0.6693734504193405
-0.7216277302067742       -0.6735257296467437
-0.7210512047643998       -0.6737846506611873
-0.7076120833074896       -0.686823488924624
-0.6997856913749712       -0.6945883491108047
-0.6992069087079241       -0.6951625752356074
-0.6940145566410545       -0.7003140498317335
-0.686687062833107        -0.7075838923044815
-0.6864083765812836       -0.7079404855733681
-0.6823335020401553       -0.7125807719556362
-0.6772384495393496       -0.7182825230439844
-0.6770415621232149       -0.7185028518418123
-0.6739833205918337       -0.7219252070806836
-0.6717670571943937       -0.7244052690036937
-0.6674420272278205       -0.7292454856827946
-0.6673911970109193       -0.7293023706675342
-0.6673274546514668       -0.7271580914380464
-0.656783041604698        -0.7380388275581278
-0.6540041765280368       -0.7414901764486626
-0.642304263841472        -0.7560215894747564
-0.6396635903979763       -0.75930133330725
-0.6385979874801516       -0.7606248295876706
-0.6365735038412672       -0.7631392374425003
-0.6311587105832736       -0.7698644911127436
-0.6270198687925099       -0.7750050091899372
-0.6204129333556054       -0.7824507850054234
-0.6204129333556054       -0.7832108997430652
-0.6074415471252979       -0.8009392410976912
-0.602146958973133        -0.8084857560838247
-0.601186900053665        -0.8098541524017786
-0.5837838297183536       -0.8346592821566502
-0.5730007747190756       -0.8500286111937764
-0.5676589068042277       -0.8576425366310072
-0.5676589068042277       -0.8602849065505499
-0.5629074538500666       -0.8671627425498847
-0.5594140393918876       -0.8722195546500763
-0.5579731909123602       -0.8743052001498111
-0.5501011489267231       -0.8857000965873865
-0.5454922144953229       -0.8923715316399857
-0.5446852332522996       -0.8935396374205361
-0.5404922905604737       -0.8996087977860907
-0.5398904268687107       -0.900479977654739
-0.5371695321649476       -0.9044184356687687
-0.5371695321649474       -0.9038406373436005
-0.5286238425242196       -0.9185827951955265
-0.5233670851974406       -0.9276512202798293
-0.5229418329549851       -0.9283848262368508
-0.5208226652693859       -0.9320405999381702
-0.5190657311317789       -0.935071482922472
-0.5188518675030879       -0.9354404257830815
-0.5164759124805104       -0.93953923441228
-0.511889755004867        -0.9474509085211773
-0.5009619300986103       -0.9663026641279333
-0.49854437283156416      -0.9704732582929637
-0.4972204278853454       -0.9727572536457353
-0.4950592680365157       -0.9764855650573394
-0.49393922879313695      -0.9784177803814773
-0.4898893409368349       -0.9854043707382405
-0.48285812906544173      -0.9975339514402379
-0.48138087018077425      -1.0000823151219977
-0.47823687816004046      -1.0055058973827227
-0.46717670311804615      -1.0245855098550152
-0.4647543280322732       -1.0287644001417768
-0.46026969202971474      -1.0377811777251096
-0.45764753632066973      -1.04781630711393
-0.45608896701561696      -1.0546105087612603
-0.45608896701561696      -1.0631217390812004
-0.4382304160847928       -1.0983092176074543
-0.4375766642902163       -1.1016291616309224
-0.4369538641834437       -1.1035735426345117
-0.4222028808846013       -1.1391212035452347
-0.4214534277237715       -1.140927301028961
-0.4156978310757055       -1.1547976814387066
-0.40038767927053137      -1.187692911191295
-0.39909654268268885      -1.186999345918896
-0.39720274303899916      -1.1918504885538235
-0.39720274303899916      -1.17703858777513
-0.3932020305424999       -1.1880293154767956
-0.3914591355696595       -1.1928172720459205
-0.38613438611288253      -1.2074453427718979
-0.37620398735164595      -1.2347260660019281
-0.3689224148533058       -1.254729951926634
-0.36381437766308294      -1.2687627633051215
-0.35450902665836315      -1.2943260336576965
-0.35113131009524823      -1.3036051718733423
-0.3446427991641117       -1.3214301695067203
-0.34277051495722816      -1.3265736695079433
-0.3397386219324853       -1.3349028225922548
-0.3361696197565064       -1.3447076072352253
-0.33286089044322614      -1.353797337323948
-0.3293083651149728       -1.36355685898486
-0.32036318347491743      -1.3881688582051834
-0.3117637971573326       -1.4149326860106415
-0.3111304789123964       -1.4169010027367133
-0.3090151748284813       -1.423475246321813
-0.301176573999783        -1.4478373921522358
-0.29937199496196054      -1.4534458204669902
-0.2924198877591706       -1.4750521965530916
-0.28916800965071926      -1.4851586720932217
-0.2889784235298942       -1.4857478836135458
-0.28625953938904525      -1.4941978579642161
-0.28625953938904525      -1.499114386546006
-0.2823682654727414       -1.5120698660354437
-0.2799824190201269       -1.5200131509583097
-0.276277759782334        -1.5323471486824638
-0.26849912747920446      -1.558244708205641
-0.26849912747920446      -1.5518323540127468
-0.26401302946327315      -1.5679536329649668
-0.25870521472220326      -1.5870274391216053
-0.246322168863906        -1.6315263781611664
-0.2448204770052567       -1.6369227860181446
-0.24232749949723142      -1.6458814304524805
-0.23926428698578545      -1.6568893322667604
-0.2363265669034015       -1.6674462668914027
-0.22848526133323976      -1.6956245521933773
-0.22650109426564285      -1.7027548066465488
-0.2206419695311897       -1.7246952180907633
-0.21366183860592614      -1.7545599193985302
-0.20951087461009482      -1.7717936002836365
-0.20935834911925016      -1.7724268449079457
-0.2016495893415623       -1.8044315877199872
-0.2012513059073865       -1.806085155770452
-0.19857777257807074      -1.8171849684131396
-0.19726746766547534      -1.8226249316795573
-0.1968682544976082       -1.8242823295550477
-0.18609631032822244      -1.869003793720729
-0.17850965952338188      -1.9005009170984692
-0.17805153217160505      -1.9141477992170643
-0.17805153217160505      -1.9024029017940647
-0.1764258645862641       -1.921135084016409
-0.17558092264562378      -1.9247667345273292
-0.17483439527653402      -1.9279753910594906
-0.160606890007184        -1.989319540820271
-0.1510834481512247       -2.0360803357564508
-0.1477629687511996       -2.0523169446329237
-0.13773176468317194      -2.1013678149523454
-0.13773176468317194      -2.0969142221814936
-0.13024628422195822      -2.1333595273701764
-0.12604643321641457      -2.1538077779528773
-0.12481361762578558      -2.1598100958226296
-0.11896809183788495      -2.188270511901574
-0.10923133492749362      -2.235676427059013
-0.10309676952404448      -2.265544142738892
-0.10128074457272782      -2.2735243803095715
-0.10059465718994068      -2.276500279004573
-0.09972307412020472      -2.2813753181261767
-0.09843025973803776      -2.288606444594703
-0.09188201945180721      -2.3262397907995167
-0.09132006768718486      -2.3307610315514027
-0.08261008304467164      -2.3852311262917465
-0.08190447011060126      -2.3896438462235063
-0.07985814815501333      -2.4024409592818707
-0.07368276893079267      -2.441060083730392
-0.07350561556144591      -2.4421679522140707
-0.0716068941432054       -2.4540419652982215
-0.06142835258295101      -2.5176957292208497
-0.055372110104926        -2.5555699798765055
-0.05512921167108464      -2.5570890069300876
-0.05507338869644774      -2.557438109744068
-0.05471373767249489      -2.5596872669963546
-0.047737929428803824     -2.6033120272692987
-0.045081697800260376     -2.619923347103576
-0.04095223505530077      -2.645747836829222
-0.03675280778072335      -2.6720098563567456
-0.03200663179033511      -2.701690885573363
-0.02753669434822386      -2.7296444094385626
-0.023868964714402238     -2.7525813013269746
-0.020476117527650523     -2.7737991442447036
-0.01837640389036207      -2.7869301043393784
-4.510437162652538E-16    -2.877632188091894
0.019705550536857512      -3.0384392957252135
0.028620472250338296      -3.122146390889762
0.029091371507415278      -3.126567951812746
0.02999831244884485       -3.135083774604591
0.03941110107371516       -3.223466757173715
0.04963455870914091       -3.3194609633462013
0.05705121730390474       -3.389100441460696
0.05724094450067699       -3.3908819029969486
0.05743193780599218       -3.3926752557431783
0.059116651610572814      -3.4084940361289493
0.05999662489769082       -3.416756643815764
0.06197131404407657       -3.4352981647602867
0.06326271620141519       -3.4474239012043855
0.07882220214743046       -3.5935210907706887
0.08586141675101568       -3.6596164279756596
0.08757296558211575       -3.6756871925537116
0.0899949373465368        -3.6984285466614293
0.09852775268428812       -3.7785483610009876
0.09852775268428814       -3.774186157884571
0.10142058517070442       -3.806628423612435
0.10891965965371227       -3.8907283389145393
0.1126631092245668        -3.932710014211321
0.11621081094766084       -3.972496443290348
0.12013248672233379       -4.016476918055717
0.12253608937476884       -4.0434326324230145
0.12438500659125046       -4.064167708715997
0.13389386921103358       -4.17080692995671
0.13802083286247557       -4.2151404000091155
0.14284349873167035       -4.275675512825105
0.1451618069231836        -4.305712419132194
0.15188938185436945       -4.3928773233693486
0.1579885332718497        -4.471900181356383
0.15941923612490622       -4.490436909821106
0.16039103731024454       -4.503027934334565
0.16114101407771828       -4.5127449155585015
0.16172857414954164       -4.520357564954394
0.16332068992450444       -4.540985607677791
0.1734124879694412        -4.671738687636258
0.17562026769730546       -4.700343506068281
0.18379788111733852       -4.812434120384697
0.1851342005517752        -4.8374217217694175
0.18943998724222702       -4.898156334263786
0.195477778811664         -4.983321471317067
0.2044704138231347        -5.11016572236708
0.20913517141376986       -5.175963794171513
0.21466243200207955       -5.253927742466791
0.21474905879354428       -5.245370174556559
0.2147490587935443        -5.25514964372924
0.22495639003329013       -5.4162630805183785
0.23158132232372752       -5.527178773731478
0.2331657207343793        -5.553705029448361
0.24302201493756775       -5.718720752585243
0.2467471320100784        -5.781087375975021
0.2467471320100784        -5.7750079788345925
0.25672083131025397       -5.96907061115642
0.2609508331954092        -6.051375609116912
0.261777442367621         -6.067459303963449
0.2630102503424218        -6.091446609626377
0.26662569213095605       -6.16179390311604
0.27072390364953813       -6.241534666580881
0.27908859160287114       -6.404290200432563
0.28175118771137964       -6.456097525541741
0.289869268424812         -6.623282284002018
0.28986926842481203       -6.614054658221145
0.29338966222157287       -6.697983592500165
0.2976423579322755        -6.788224100480759
0.30169286001462625       -6.874174058414371
0.3087579967706564        -7.0240932348265375
0.3108602832060323        -7.068702852709028
0.3136599019778143        -7.128109684236126
0.3147470917031524        -7.151179431268164
0.31824746947189697       -7.22545597370995
0.31824746947189697       -7.224878856592927
0.331273027536663         -7.5687333224994955
0.3335784601893846        -7.629593154578205
0.33864554002345526       -7.763356254204835
0.3437521406747118        -7.898162642506538
0.3538411895183085        -8.17461397580281
0.3551503381045328        -8.22291729230083
0.369850031079306         -8.651700990972142
0.3752437399036414        -8.809033149080724
0.3758182168571973        -8.825790406196473
0.3765737554425558        -8.84782914158304
0.3807170396938931        -8.943270386917753
0.38071703969389314       -8.9686869940221
0.39349997631178446       -9.367767336415866
0.39782182581228076       -9.511287775398207
0.40071680753920413       -9.607424603959108
0.4016396971638647        -9.638072010400919
0.4099496532954866        -9.914029898481003
0.4177452869669491        -10.164505337337616
0.4177452869669491        -10.172908144015627
0.4200272364454796        -10.259304012321039
0.4216874678775333        -10.32827475045757
0.4294597506049831        -10.651157712684267
0.43118251437071453       -10.722726308498371
0.43382691370760207       -10.832582314920957
0.436945057698509         -10.962118952018923
0.4388101048385603        -11.03959829890764
0.4419581197037042        -11.170375821875584
0.449908540448255         -11.500658882443249
0.45417860618543393       -11.67804960475273
0.45593274179958737       -11.750921429098295
0.46019471124398          -11.92797584605185
0.4642120321110178        -12.118256255351046
0.4662853584256452        -12.240716301326755
0.47100787091892715       -12.466374257848365
0.47611523531267563       -12.710421767292551
0.4791322623228288        -12.85458573739325
0.484745659196578         -13.122813085220677
0.4850367234473463        -13.136721134540878
0.4911958154884104        -13.431023707388025
0.49408228981631674       -13.568949323612715
0.5024375897144282        -13.968194131040125
0.5024375897144282        -14.011569094689238
0.5035624478089857        -14.098011022193994
0.5042463396430388        -14.295500665877128
0.5054030535427152        -13.723013847732547
0.5054030535427152        -14.50360334678293
0.5203685701610259        -14.87110982228824
0.5250452203277352        -15.229884154491025
0.5284431924177098        -15.490563242806642
0.5338818271938717        -15.907794089852214
0.5385633448868491        -16.266941802172468
0.5431314661105553        -16.617390181243373
0.5529733234223739        -17.37241873214339
0.5588590354306017        -17.82394754838451
0.5649013851529848        -18.287493022449905
0.5684113363566398        -18.556762683707767
0.5775034544270381        -19.254274183428272
0.5832997527649189        -19.698943527392274
0.5913964168693173        -20.320087893382553
0.5976737355213654        -20.8016592002776
0.5976737355213654        -20.79380029381104
0.6031405111842302        -21.29863279270306
0.6070995046902699        -21.66422823964535
0.6160771004223187        -22.493269259164286
0.6318393465127539        -23.948842550582786
0.633898616610117         -24.507201924789644
0.633898616610117         -24.13900697854395
0.6349754392490397        -24.654652962223004
0.6440639668475063        -25.89915987131475
0.6442402302130217        -24.68863045528682
0.6442402302130217        -25.923295901472233
0.6580623662082267        -26.902472250182786
0.6725785752527044        -29.227481620970334
0.6811735038573912        -30.60410064635897
0.6860497834359651        -31.385116935117747
0.6908995256207062        -32.161882777754414
0.6972568866355162        -33.180118573800286
0.7117148683299922        -35.4958017946585
0.7181067775017604        -36.51957102684454
0.7237366850331857        -37.42129324919402
0.7402181978427098        -40.06107818712553
0.7439369214258418        -41.42804276776074
0.7553311767077319        -44.432765324230935
0.7561614720562803        -44.59551039961898
0.7566668707096275        -44.69457291042772
0.7570990661990172        -44.77928696164873
0.7705737623638991        -47.42044403746459
0.7813744271255868        -49.53746781371808
0.7897457597151802        -51.2456459020981
0.7917071502076927        -51.82722390249118
0.79708585323109          -53.23745681127029
0.79708585323109          -53.30420700211394
0.8103954104985236        -57.42928228415029
0.8151658022339543        -58.907785589776566
0.8168873986092333        -59.441365663261394
0.8172399486173565        -59.55063265437645
0.8236113082440002        -61.525329235498035
0.8292014128938787        -62.04577874222471
0.8292014128938787        -63.257888977732634
0.8371274344827891        -65.03298766553891
0.8380819598895917        -65.39273521110708
0.8478819958417818        -69.08623430553442
0.8486548029099394        -69.37749470659017
0.8491297911170073        -69.55651125727613
0.8599076079486271        -73.61852286520072
0.8656646344516215        -75.78826736571138
0.8715506211099084        -78.00661524209717
0.8738045859013535        -78.85610370510423
0.881395636717328         -81.71706680210829
0.8817332560076626        -81.93013833708882
0.8817332560076627        -81.84431089027461
0.8820067178328308        -82.05070424817904
0.8936806158764885        -87.19758037679651
0.9000428679863177        -90.0026179824271
0.9039304173339344        -91.71659000452946
0.9081411161952861        -93.5730345748172
0.9146488633624079        -96.7268093056277
0.9146488633624079        -96.44221914061863
0.9196928855821147        -99.14163549398947
0.9205751929544024        -99.56404023512572
0.9266380011299316        -102.46661012713419
0.9283994928819586        -103.30992449852488
0.9312848138365397        -104.69127224841267
0.9320353337988565        -105.0505837695612
0.939949125207539         -108.83931219358456
0.9421501224015092        -109.89303983117537
0.9422868353433014        -109.95849117164846
0.9422868353433014        -110.04598549762898
0.94399245632465          -110.92950395954733
0.9448739266760648        -111.3861091412669
0.9452213844399663        -111.5660936436139
0.9574762937935882        -117.91418538446891
0.9578724990320339        -118.11942126581512
0.9601649046914754        -119.22038333755064
0.9601649046914755        -119.30689646872878
0.9626775247366998        -120.54787149660893
0.9674241707257933        -123.05565867984804
0.9704178170093357        -124.63728659106556
0.9740115339078612        -126.53594869794833
0.9803513309628872        -129.88544256471852
0.9818505917271646        -130.67754437666144
0.982875867153038         -131.21922635250564
0.9837953341505592        -131.7050067420199
0.9845003395974555        -132.07748104620237
0.9902600543399565        -135.12050113980123
0.9953339172967404        -137.80116638370464
1.0014248262824945        -141.01916554076917
1.0014248262824947        -140.9111246119626
1.0061712106150218        -143.1920099090691
1.0112773418663825        -145.64577205732064
1.0175743981999925        -148.2366173171099
1.0202632808741827        -149.00657861777222
1.0251804871424206        -151.2105120510635
1.0279168746970595        -152.43698398514658
1.0330814868675888        -154.75180663036718
1.0349443834537086        -155.58677251789192
1.040563391189993         -158.10525867646828
1.0446889714332745        -159.9543781582288
1.046728867812559         -160.8686767792351
1.0496254860332346        -162.1669653126097
1.0526298858025311        -162.4012626755651
1.0526298858025311        -163.51356260868891
1.0571793129135207        -164.36598824441438
1.0595488843756726        -165.38931661924443
1.0595488843756726        -165.79985380145703
1.0639065655155666        -167.05702448714305
1.064555924574442         -167.24436155066283
1.070610886778674         -168.99119000338837
1.0725033868730516        -169.53716748435988
1.0736095126198153        -169.85627964951686
1.0751990959546622        -170.3148670779137
1.0764274395615516        -170.66923849260263
1.0764274395615518        -169.80685125859304
1.0811228852468506        -170.59816548373752
1.0847458520933668        -171.20873691037366
1.092737878342753         -172.459111837926
1.092737878342753         -172.55561726438324
1.0934358297632776        -172.53484169802329
1.0935121379287307        -172.54312136695737
1.095751301978421         -172.786077531667
1.098252288719532         -173.0574423524426
1.0990642220523739        -173.14553964276337
1.102700058320829         -173.5400391790489
1.1048756509892108        -173.77609771386656
1.105819126633691         -173.87846778589864
1.1070784060175265        -174.01510343841053
1.1108056283211791        -174.41951842213342
1.1139999999999999        -174.76611746796794
